ITEM: TIMESTEP
0
ITEM: NUMBER OF ATOMS
2
ITEM: BOX BOUNDS xy xz yz pp pp pp
0.0000000000000000e+00 3.4413801296000002e+00 0.0000000000000000e+00
0.0000000000000000e+00 3.4413801296000002e+00 0.0000000000000000e+00
0.0000000000000000e+00 3.4413801296000002e+00 0.0000000000000000e+00
ITEM: ATOMS id type xs ys zs fx fy fz
1 1 0 0 0 0 1.13191e-16 2.98372e-16
2 1 0.5 0.5 0.5 -2.77556e-16 -1.20563e-16 7.74832e-17
ITEM: TIMESTEP
1
ITEM: NUMBER OF ATOMS
2
ITEM: BOX BOUNDS xy xz yz pp pp pp
0.0000000000000000e+00 3.4413801296000002e+00 0.0000000000000000e+00
0.0000000000000000e+00 3.4413801296000002e+00 0.0000000000000000e+00
0.0000000000000000e+00 3.4413801296000002e+00 0.0000000000000000e+00
ITEM: ATOMS id type xs ys zs fx fy fz
1 1 0 0 0 0 1.13191e-16 2.98372e-16
2 1 0.5 0.5 0.5 -2.77556e-16 -1.20563e-16 7.74832e-17
