
2 atoms
1 atom types
   0.0000000000    2.8603743794 xlo xhi
   0.0000000000    2.8603743794 ylo yhi
   0.0000000000    2.8603743794 zlo zhi
   0.0000000000    0.0000000000    0.0000000000 xy xz yz

Atoms # atomic

     1      1    0.0000000000    0.0000000000    0.0000000000
     2      1    1.4301871897    1.4301871897    1.4301871897
