ITEM: TIMESTEP
0
ITEM: NUMBER OF ATOMS
2
ITEM: BOX BOUNDS xy xz yz pp pp pp
0.0000000000000000e+00 3.3687170407000000e+00 0.0000000000000000e+00
0.0000000000000000e+00 3.3687170407000000e+00 0.0000000000000000e+00
0.0000000000000000e+00 3.3687170407000000e+00 0.0000000000000000e+00
ITEM: ATOMS id type xs ys zs fx fy fz
1 1 0 0 0 6.13604e-11 6.13603e-11 6.13607e-11
2 1 0.5 0.5 0.5 -6.13604e-11 -6.13603e-11 -6.13605e-11
ITEM: TIMESTEP
1
ITEM: NUMBER OF ATOMS
2
ITEM: BOX BOUNDS xy xz yz pp pp pp
0.0000000000000000e+00 3.3687170407000000e+00 0.0000000000000000e+00
0.0000000000000000e+00 3.3687170407000000e+00 0.0000000000000000e+00
0.0000000000000000e+00 3.3687170407000000e+00 0.0000000000000000e+00
ITEM: ATOMS id type xs ys zs fx fy fz
1 1 7.42121e-12 7.4212e-12 7.42125e-12 -3.33067e-16 2.71051e-20 -4.80627e-16
2 1 0.5 0.5 0.5 6.10623e-16 2.84928e-16 4.55866e-16
