
2 atoms
1 atom types
   0.0000000000    3.2203750927 xlo xhi
   0.0000000000    3.2203750927 ylo yhi
   0.0000000000    3.2203750927 zlo zhi
   0.0000000000    0.0000000000    0.0000000000 xy xz yz

Atoms # atomic

     1      1    0.0000000000    0.0000000000    0.0000000000
     2      1    1.6101875464    1.6101875464    1.6101875464
