
2 atoms
1 atom types
   0.0000000000    3.2732341201 xlo xhi
   0.0000000000    3.2732341201 ylo yhi
   0.0000000000    3.2732341201 zlo zhi
   0.0000000000    0.0000000000    0.0000000000 xy xz yz

Atoms # atomic

     1      1    0.0000000000    0.0000000000    0.0000000000
     2      1    1.6366170601    1.6366170601    1.6366170601
