ITEM: TIMESTEP
0
ITEM: NUMBER OF ATOMS
2
ITEM: BOX BOUNDS xy xz yz pp pp pp
0.0000000000000000e+00 3.2732341201000001e+00 0.0000000000000000e+00
0.0000000000000000e+00 3.2732341201000001e+00 0.0000000000000000e+00
0.0000000000000000e+00 3.2732341201000001e+00 0.0000000000000000e+00
ITEM: ATOMS id type xs ys zs fx fy fz
1 1 0 0 0 1.99194e-10 1.99194e-10 1.99194e-10
2 1 0.5 0.5 0.5 -1.99193e-10 -1.99194e-10 -1.99194e-10
ITEM: TIMESTEP
1
ITEM: NUMBER OF ATOMS
2
ITEM: BOX BOUNDS xy xz yz pp pp pp
0.0000000000000000e+00 3.2732341201000001e+00 0.0000000000000000e+00
0.0000000000000000e+00 3.2732341201000001e+00 0.0000000000000000e+00
0.0000000000000000e+00 3.2732341201000001e+00 0.0000000000000000e+00
ITEM: ATOMS id type xs ys zs fx fy fz
1 1 7.63776e-12 7.63775e-12 7.63775e-12 4.44089e-16 5.98344e-16 2.61022e-16
2 1 0.5 0.5 0.5 -5.55112e-16 -5.68935e-16 -1.45825e-16
