
2 atoms
1 atom types
   0.0000000000    3.1718297478 xlo xhi
   0.0000000000    3.1718297478 ylo yhi
   0.0000000000    3.1718297478 zlo zhi
   0.0000000000    0.0000000000    0.0000000000 xy xz yz

Atoms # atomic

     1      1    0.0000000000    0.0000000000    0.0000000000
     2      1    1.5859148739    1.5859148739    1.5859148739
