ITEM: TIMESTEP
0
ITEM: NUMBER OF ATOMS
2
ITEM: BOX BOUNDS xy xz yz pp pp pp
0.0000000000000000e+00 3.1718297477999999e+00 0.0000000000000000e+00
0.0000000000000000e+00 3.1718297477999999e+00 0.0000000000000000e+00
0.0000000000000000e+00 3.1718297477999999e+00 0.0000000000000000e+00
ITEM: ATOMS id type xs ys zs fx fy fz
1 1 0 0 0 -3.05311e-16 -1.72659e-17 -2.48255e-16
2 1 0.5 0.5 0.5 2.77556e-16 -1.4325e-16 1.67089e-16
ITEM: TIMESTEP
1
ITEM: NUMBER OF ATOMS
2
ITEM: BOX BOUNDS xy xz yz pp pp pp
0.0000000000000000e+00 3.1718297477999999e+00 0.0000000000000000e+00
0.0000000000000000e+00 3.1718297477999999e+00 0.0000000000000000e+00
0.0000000000000000e+00 3.1718297477999999e+00 0.0000000000000000e+00
ITEM: ATOMS id type xs ys zs fx fy fz
1 1 0 0 0 -3.88578e-16 -1.07424e-16 -7.53927e-16
2 1 0.5 0.5 0.5 4.44089e-16 1.51165e-16 6.90298e-16
