
2 atoms
1 atom types
   0.0000000000    2.8069548261 xlo xhi
   0.0000000000    2.8069548261 ylo yhi
   0.0000000000    2.8069548261 zlo zhi
   0.0000000000    0.0000000000    0.0000000000 xy xz yz

Atoms # atomic

     1      1    0.0000000000    0.0000000000    0.0000000000
     2      1    1.4034774131    1.4034774131    1.4034774131
