
2 atoms
1 atom types
   0.0000000000    3.5110978460 xlo xhi
   0.0000000000    3.5110978460 ylo yhi
   0.0000000000    3.5110978460 zlo zhi
   0.0000000000    0.0000000000    0.0000000000 xy xz yz

Atoms # atomic

     1      1    0.0000000000    0.0000000000    0.0000000000
     2      1    1.7555489230    1.7555489230    1.7555489230
