ITEM: TIMESTEP
0
ITEM: NUMBER OF ATOMS
2
ITEM: BOX BOUNDS xy xz yz pp pp pp
0.0000000000000000e+00 3.5110978460000002e+00 0.0000000000000000e+00
0.0000000000000000e+00 3.5110978460000002e+00 0.0000000000000000e+00
0.0000000000000000e+00 3.5110978460000002e+00 0.0000000000000000e+00
ITEM: ATOMS id type xs ys zs fx fy fz
1 1 0 0 0 -4.44089e-16 -6.9519e-16 -4.54498e-16
2 1 0.5 0.5 0.5 6.66134e-16 7.73687e-16 1.88543e-16
ITEM: TIMESTEP
1
ITEM: NUMBER OF ATOMS
2
ITEM: BOX BOUNDS xy xz yz pp pp pp
0.0000000000000000e+00 3.5110978460000002e+00 0.0000000000000000e+00
0.0000000000000000e+00 3.5110978460000002e+00 0.0000000000000000e+00
0.0000000000000000e+00 3.5110978460000002e+00 0.0000000000000000e+00
ITEM: ATOMS id type xs ys zs fx fy fz
1 1 0 0 0 -1.33227e-15 -1.58857e-15 -1.0417e-15
2 1 0.5 0.5 0.5 9.99201e-16 1.21951e-15 9.88684e-16
