ITEM: TIMESTEP
0
ITEM: NUMBER OF ATOMS
2
ITEM: BOX BOUNDS xy xz yz pp pp pp
0.0000000000000000e+00 3.4324645971000001e+00 0.0000000000000000e+00
0.0000000000000000e+00 3.4324645971000001e+00 0.0000000000000000e+00
0.0000000000000000e+00 3.4324645971000001e+00 0.0000000000000000e+00
ITEM: ATOMS id type xs ys zs fx fy fz
1 1 0 0 0 -2.42173e-11 -2.42176e-11 -2.42173e-11
2 1 0.5 0.5 0.5 2.42179e-11 2.42176e-11 2.42176e-11
ITEM: TIMESTEP
1
ITEM: NUMBER OF ATOMS
2
ITEM: BOX BOUNDS xy xz yz pp pp pp
0.0000000000000000e+00 3.4324645971000001e+00 0.0000000000000000e+00
0.0000000000000000e+00 3.4324645971000001e+00 0.0000000000000000e+00
0.0000000000000000e+00 3.4324645971000001e+00 0.0000000000000000e+00
ITEM: ATOMS id type xs ys zs fx fy fz
1 1 0 0 0 -2.42177e-11 -2.42172e-11 -2.42172e-11
2 1 0.5 0.5 0.5 2.42179e-11 2.42176e-11 2.42174e-11
