ITEM: TIMESTEP
0
ITEM: NUMBER OF ATOMS
2
ITEM: BOX BOUNDS xy xz yz pp pp pp
0.0000000000000000e+00 2.7935242148000001e+00 0.0000000000000000e+00
0.0000000000000000e+00 2.7935242148000001e+00 0.0000000000000000e+00
0.0000000000000000e+00 2.7935242148000001e+00 0.0000000000000000e+00
ITEM: ATOMS id type xs ys zs fx fy fz
1 1 0 0 0 -8.88178e-16 -7.77156e-16 -9.36751e-16
2 1 0.5 0.5 0.5 8.88178e-16 3.34829e-16 1.38572e-15
ITEM: TIMESTEP
1
ITEM: NUMBER OF ATOMS
2
ITEM: BOX BOUNDS xy xz yz pp pp pp
0.0000000000000000e+00 2.7935242148000001e+00 0.0000000000000000e+00
0.0000000000000000e+00 2.7935242148000001e+00 0.0000000000000000e+00
0.0000000000000000e+00 2.7935242148000001e+00 0.0000000000000000e+00
ITEM: ATOMS id type xs ys zs fx fy fz
1 1 -3.17942e-16 -2.78199e-16 -3.35329e-16 -5.9508e-14 -4.61575e-14 -7.25781e-14
2 1 0.5 0.5 0.5 5.77316e-14 4.64368e-14 7.20833e-14
