
2 atoms
1 atom types
   0.0000000000    3.3216617572 xlo xhi
   0.0000000000    3.3216617572 ylo yhi
   0.0000000000    3.3216617572 zlo zhi
   0.0000000000    0.0000000000    0.0000000000 xy xz yz

Atoms # atomic

     1      1    0.0000000000    0.0000000000    0.0000000000
     2      1    1.6608308786    1.6608308786    1.6608308786
