ITEM: TIMESTEP
0
ITEM: NUMBER OF ATOMS
2
ITEM: BOX BOUNDS xy xz yz pp pp pp
0.0000000000000000e+00 3.3216617571999998e+00 0.0000000000000000e+00
0.0000000000000000e+00 3.3216617571999998e+00 0.0000000000000000e+00
0.0000000000000000e+00 3.3216617571999998e+00 0.0000000000000000e+00
ITEM: ATOMS id type xs ys zs fx fy fz
1 1 0 0 0 0 1.37043e-16 1.22623e-16
2 1 0.5 0.5 0.5 5.55112e-17 -1.11456e-16 1.22081e-16
ITEM: TIMESTEP
1
ITEM: NUMBER OF ATOMS
2
ITEM: BOX BOUNDS xy xz yz pp pp pp
0.0000000000000000e+00 3.3216617571999998e+00 0.0000000000000000e+00
0.0000000000000000e+00 3.3216617571999998e+00 0.0000000000000000e+00
0.0000000000000000e+00 3.3216617571999998e+00 0.0000000000000000e+00
ITEM: ATOMS id type xs ys zs fx fy fz
1 1 0 0 0 0 1.37043e-16 1.22623e-16
2 1 0.5 0.5 0.5 5.55112e-17 -1.11456e-16 1.22081e-16
