
2 atoms
1 atom types
   0.0000000000    3.3500534055 xlo xhi
   0.0000000000    3.3500534055 ylo yhi
   0.0000000000    3.3500534055 zlo zhi
   0.0000000000    0.0000000000    0.0000000000 xy xz yz

Atoms # atomic

     1      1    0.0000000000    0.0000000000    0.0000000000
     2      1    1.6750267027    1.6750267027    1.6750267027
