
2 atoms
1 atom types
   0.0000000000    3.2434757992 xlo xhi
   0.0000000000    3.2434757992 ylo yhi
   0.0000000000    3.2434757992 zlo zhi
   0.0000000000    0.0000000000    0.0000000000 xy xz yz

Atoms # atomic

     1      1    0.0000000000    0.0000000000    0.0000000000
     2      1    1.6217378996    1.6217378996    1.6217378996
