
2 atoms
1 atom types
   0.0000000000    2.9709506701 xlo xhi
   0.0000000000    2.9709506701 ylo yhi
   0.0000000000    2.9709506701 zlo zhi
   0.0000000000    0.0000000000    0.0000000000 xy xz yz

Atoms # atomic

     1      1    0.0000000000    0.0000000000    0.0000000000
     2      1    1.4854753350    1.4854753350    1.4854753350
