ITEM: TIMESTEP
0
ITEM: NUMBER OF ATOMS
2
ITEM: BOX BOUNDS xy xz yz pp pp pp
0.0000000000000000e+00 3.4678533248000001e+00 0.0000000000000000e+00
0.0000000000000000e+00 3.4678533248000001e+00 0.0000000000000000e+00
0.0000000000000000e+00 3.4678533248000001e+00 0.0000000000000000e+00
ITEM: ATOMS id type xs ys zs fx fy fz
1 1 0 0 0 2.22045e-16 -2.19876e-16 -1.2013e-16
2 1 0.5 0.5 0.5 -2.22045e-16 3.98986e-17 1.42139e-16
ITEM: TIMESTEP
1
ITEM: NUMBER OF ATOMS
2
ITEM: BOX BOUNDS xy xz yz pp pp pp
0.0000000000000000e+00 3.4678533248000001e+00 0.0000000000000000e+00
0.0000000000000000e+00 3.4678533248000001e+00 0.0000000000000000e+00
0.0000000000000000e+00 3.4678533248000001e+00 0.0000000000000000e+00
ITEM: ATOMS id type xs ys zs fx fy fz
1 1 0 0 0 2.22045e-16 -2.19876e-16 -1.2013e-16
2 1 0.5 0.5 0.5 -2.22045e-16 3.98986e-17 1.42139e-16
