ITEM: TIMESTEP
0
ITEM: NUMBER OF ATOMS
2
ITEM: BOX BOUNDS xy xz yz pp pp pp
0.0000000000000000e+00 2.6956694687999998e+00 0.0000000000000000e+00
0.0000000000000000e+00 2.6956694687999998e+00 0.0000000000000000e+00
0.0000000000000000e+00 2.6956694687999998e+00 0.0000000000000000e+00
ITEM: ATOMS id type xs ys zs fx fy fz
1 1 0 0 0 -4.44089e-16 6.45314e-16 2.77998e-16
2 1 0.5 0.5 0.5 6.10623e-16 -2.70935e-16 9.72787e-16
ITEM: TIMESTEP
1
ITEM: NUMBER OF ATOMS
2
ITEM: BOX BOUNDS xy xz yz pp pp pp
0.0000000000000000e+00 2.6956694687999998e+00 0.0000000000000000e+00
0.0000000000000000e+00 2.6956694687999998e+00 0.0000000000000000e+00
0.0000000000000000e+00 2.6956694687999998e+00 0.0000000000000000e+00
ITEM: ATOMS id type xs ys zs fx fy fz
1 1 0 0 0 -4.44089e-16 6.45314e-16 2.77998e-16
2 1 0.5 0.5 0.5 6.10623e-16 -2.70935e-16 9.72787e-16
