ITEM: TIMESTEP
0
ITEM: NUMBER OF ATOMS
2
ITEM: BOX BOUNDS xy xz yz pp pp pp
0.0000000000000000e+00 2.8334370959999999e+00 0.0000000000000000e+00
0.0000000000000000e+00 2.8334370959999999e+00 0.0000000000000000e+00
0.0000000000000000e+00 2.8334370959999999e+00 0.0000000000000000e+00
ITEM: ATOMS id type xs ys zs fx fy fz
1 1 0 0 0 -8.88178e-16 -7.04298e-16 -3.51288e-16
2 1 0.5 0.5 0.5 -4.44089e-16 -1.77137e-16 -8.16032e-16
ITEM: TIMESTEP
1
ITEM: NUMBER OF ATOMS
2
ITEM: BOX BOUNDS xy xz yz pp pp pp
0.0000000000000000e+00 2.8334370959999999e+00 0.0000000000000000e+00
0.0000000000000000e+00 2.8334370959999999e+00 0.0000000000000000e+00
0.0000000000000000e+00 2.8334370959999999e+00 0.0000000000000000e+00
ITEM: ATOMS id type xs ys zs fx fy fz
1 1 0 0 0 -8.88178e-16 -6.15827e-16 -2.3246e-16
2 1 0.5 0.5 0.5 -4.44089e-16 -7.58274e-16 -4.04031e-16
