
2 atoms
1 atom types
   0.0000000000    2.6229549501 xlo xhi
   0.0000000000    2.6229549501 ylo yhi
   0.0000000000    2.6229549501 zlo zhi
   0.0000000000    0.0000000000    0.0000000000 xy xz yz

Atoms # atomic

     1      1    0.0000000000    0.0000000000    0.0000000000
     2      1    1.3114774751    1.3114774751    1.3114774751
