ITEM: TIMESTEP
0
ITEM: NUMBER OF ATOMS
2
ITEM: BOX BOUNDS xy xz yz pp pp pp
0.0000000000000000e+00 3.4502497052000001e+00 0.0000000000000000e+00
0.0000000000000000e+00 3.4502497052000001e+00 0.0000000000000000e+00
0.0000000000000000e+00 3.4502497052000001e+00 0.0000000000000000e+00
ITEM: ATOMS id type xs ys zs fx fy fz
1 1 0 0 0 0 4.87025e-16 -1.83205e-17
2 1 0.5 0.5 0.5 -1.11022e-16 -3.07046e-16 -1.52755e-16
ITEM: TIMESTEP
1
ITEM: NUMBER OF ATOMS
2
ITEM: BOX BOUNDS xy xz yz pp pp pp
0.0000000000000000e+00 3.4502497052000001e+00 0.0000000000000000e+00
0.0000000000000000e+00 3.4502497052000001e+00 0.0000000000000000e+00
0.0000000000000000e+00 3.4502497052000001e+00 0.0000000000000000e+00
ITEM: ATOMS id type xs ys zs fx fy fz
1 1 0 0 0 0 -7.45914e-17 3.6462e-16
2 1 0.5 0.5 0.5 -5.55112e-17 -2.71918e-16 -8.12258e-17
