
2 atoms
1 atom types
   0.0000000000    3.2445431772 xlo xhi
   0.0000000000    3.2445431772 ylo yhi
   0.0000000000    3.2445431772 zlo zhi
   0.0000000000    0.0000000000    0.0000000000 xy xz yz

Atoms # atomic

     1      1    0.0000000000    0.0000000000    0.0000000000
     2      1    1.6222715886    1.6222715886    1.6222715886
