ITEM: TIMESTEP
0
ITEM: NUMBER OF ATOMS
2
ITEM: BOX BOUNDS xy xz yz pp pp pp
0.0000000000000000e+00 2.7799632040000000e+00 0.0000000000000000e+00
0.0000000000000000e+00 2.7799632040000000e+00 0.0000000000000000e+00
0.0000000000000000e+00 2.7799632040000000e+00 0.0000000000000000e+00
ITEM: ATOMS id type xs ys zs fx fy fz
1 1 0 0 0 -4.44089e-16 -4.85723e-17 7.93362e-16
2 1 0.5 0.5 0.5 -4.44089e-16 9.229e-16 -8.98156e-16
ITEM: TIMESTEP
1
ITEM: NUMBER OF ATOMS
2
ITEM: BOX BOUNDS xy xz yz pp pp pp
0.0000000000000000e+00 2.7799632040000000e+00 0.0000000000000000e+00
0.0000000000000000e+00 2.7799632040000000e+00 0.0000000000000000e+00
0.0000000000000000e+00 2.7799632040000000e+00 0.0000000000000000e+00
ITEM: ATOMS id type xs ys zs fx fy fz
1 1 -1.59746e-16 -1.74723e-17 2.85386e-16 8.88178e-16 -4.15987e-14 8.96705e-14
2 1 0.5 0.5 0.5 0 4.1034e-14 -8.88815e-14
