
2 atoms
1 atom types
   0.0000000000    2.8283012100 xlo xhi
   0.0000000000    2.8283012100 ylo yhi
   0.0000000000    2.8283012100 zlo zhi
   0.0000000000    0.0000000000    0.0000000000 xy xz yz

Atoms # atomic

     1      1    0.0000000000    0.0000000000    0.0000000000
     2      1    1.4141506050    1.4141506050    1.4141506050
