ITEM: TIMESTEP
0
ITEM: NUMBER OF ATOMS
2
ITEM: BOX BOUNDS xy xz yz pp pp pp
0.0000000000000000e+00 2.9828345992999998e+00 0.0000000000000000e+00
0.0000000000000000e+00 2.9828345992999998e+00 0.0000000000000000e+00
0.0000000000000000e+00 2.9828345992999998e+00 0.0000000000000000e+00
ITEM: ATOMS id type xs ys zs fx fy fz
1 1 0 0 0 -5.49062e-10 -5.49062e-10 -5.49063e-10
2 1 0.5 0.5 0.5 5.49062e-10 5.49062e-10 5.49063e-10
ITEM: TIMESTEP
1
ITEM: NUMBER OF ATOMS
2
ITEM: BOX BOUNDS xy xz yz pp pp pp
0.0000000000000000e+00 2.9828345992999998e+00 0.0000000000000000e+00
0.0000000000000000e+00 2.9828345992999998e+00 0.0000000000000000e+00
0.0000000000000000e+00 2.9828345992999998e+00 0.0000000000000000e+00
ITEM: ATOMS id type xs ys zs fx fy fz
1 1 -8.3813e-12 -8.3813e-12 -8.38131e-12 6.66134e-16 -3.99854e-16 5.92801e-16
2 1 0.5 0.5 0.5 -1.94289e-16 2.97275e-16 -5.86238e-16
