
2 atoms
1 atom types
   0.0000000000    2.8975636520 xlo xhi
   0.0000000000    2.8975636520 ylo yhi
   0.0000000000    2.8975636520 zlo zhi
   0.0000000000    0.0000000000    0.0000000000 xy xz yz

Atoms # atomic

     1      1    0.0000000000    0.0000000000    0.0000000000
     2      1    1.4487818260    1.4487818260    1.4487818260
