ITEM: TIMESTEP
0
ITEM: NUMBER OF ATOMS
2
ITEM: BOX BOUNDS xy xz yz pp pp pp
0.0000000000000000e+00 2.8975636520000001e+00 0.0000000000000000e+00
0.0000000000000000e+00 2.8975636520000001e+00 0.0000000000000000e+00
0.0000000000000000e+00 2.8975636520000001e+00 0.0000000000000000e+00
ITEM: ATOMS id type xs ys zs fx fy fz
1 1 0 0 0 -4.44089e-16 -6.52256e-16 -1.03924e-15
2 1 0.5 0.5 0.5 2.22045e-16 6.17778e-16 6.174e-16
ITEM: TIMESTEP
1
ITEM: NUMBER OF ATOMS
2
ITEM: BOX BOUNDS xy xz yz pp pp pp
0.0000000000000000e+00 2.8975636520000001e+00 0.0000000000000000e+00
0.0000000000000000e+00 2.8975636520000001e+00 0.0000000000000000e+00
0.0000000000000000e+00 2.8975636520000001e+00 0.0000000000000000e+00
ITEM: ATOMS id type xs ys zs fx fy fz
1 1 0 0 0 -4.44089e-16 -6.52256e-16 -1.03924e-15
2 1 0.5 0.5 0.5 2.22045e-16 6.17778e-16 6.174e-16
