
2 atoms
1 atom types
   0.0000000000    3.5281010063 xlo xhi
   0.0000000000    3.5281010063 ylo yhi
   0.0000000000    3.5281010063 zlo zhi
   0.0000000000    0.0000000000    0.0000000000 xy xz yz

Atoms # atomic

     1      1    0.0000000000    0.0000000000    0.0000000000
     2      1    1.7640505032    1.7640505032    1.7640505032
