ITEM: TIMESTEP
0
ITEM: NUMBER OF ATOMS
2
ITEM: BOX BOUNDS xy xz yz pp pp pp
0.0000000000000000e+00 3.5281010063000000e+00 0.0000000000000000e+00
0.0000000000000000e+00 3.5281010063000000e+00 0.0000000000000000e+00
0.0000000000000000e+00 3.5281010063000000e+00 0.0000000000000000e+00
ITEM: ATOMS id type xs ys zs fx fy fz
1 1 0 0 0 5.04241e-11 5.0424e-11 5.04239e-11
2 1 0.5 0.5 0.5 -5.04237e-11 -5.04233e-11 -5.04239e-11
ITEM: TIMESTEP
1
ITEM: NUMBER OF ATOMS
2
ITEM: BOX BOUNDS xy xz yz pp pp pp
0.0000000000000000e+00 3.5281010063000000e+00 0.0000000000000000e+00
0.0000000000000000e+00 3.5281010063000000e+00 0.0000000000000000e+00
0.0000000000000000e+00 3.5281010063000000e+00 0.0000000000000000e+00
ITEM: ATOMS id type xs ys zs fx fy fz
1 1 7.08597e-12 7.08595e-12 7.08595e-12 -2.22045e-16 1.45023e-15 1.43657e-16
2 1 0.5 0.5 0.5 4.996e-16 -1.00267e-15 -1.2612e-16
