
2 atoms
1 atom types
   0.0000000000    2.6615333392 xlo xhi
   0.0000000000    2.6615333392 ylo yhi
   0.0000000000    2.6615333392 zlo zhi
   0.0000000000    0.0000000000    0.0000000000 xy xz yz

Atoms # atomic

     1      1    0.0000000000    0.0000000000    0.0000000000
     2      1    1.3307666696    1.3307666696    1.3307666696
