
2 atoms
1 atom types
   0.0000000000    3.1186010518 xlo xhi
   0.0000000000    3.1186010518 ylo yhi
   0.0000000000    3.1186010518 zlo zhi
   0.0000000000    0.0000000000    0.0000000000 xy xz yz

Atoms # atomic

     1      1    0.0000000000    0.0000000000    0.0000000000
     2      1    1.5593005259    1.5593005259    1.5593005259
