ITEM: TIMESTEP
0
ITEM: NUMBER OF ATOMS
2
ITEM: BOX BOUNDS xy xz yz pp pp pp
0.0000000000000000e+00 3.1186010517999998e+00 0.0000000000000000e+00
0.0000000000000000e+00 3.1186010517999998e+00 0.0000000000000000e+00
0.0000000000000000e+00 3.1186010517999998e+00 0.0000000000000000e+00
ITEM: ATOMS id type xs ys zs fx fy fz
1 1 0 0 0 4.996e-16 3.27863e-16 2.83193e-16
2 1 0.5 0.5 0.5 -2.77556e-16 -4.4062e-16 -1.36119e-16
ITEM: TIMESTEP
1
ITEM: NUMBER OF ATOMS
2
ITEM: BOX BOUNDS xy xz yz pp pp pp
0.0000000000000000e+00 3.1186010517999998e+00 0.0000000000000000e+00
0.0000000000000000e+00 3.1186010517999998e+00 0.0000000000000000e+00
0.0000000000000000e+00 3.1186010517999998e+00 0.0000000000000000e+00
ITEM: ATOMS id type xs ys zs fx fy fz
1 1 0 0 0 4.996e-16 3.27863e-16 2.83193e-16
2 1 0.5 0.5 0.5 -2.77556e-16 -4.4062e-16 -1.36119e-16
