ITEM: TIMESTEP
0
ITEM: NUMBER OF ATOMS
2
ITEM: BOX BOUNDS xy xz yz pp pp pp
0.0000000000000000e+00 3.0634905202999998e+00 0.0000000000000000e+00
0.0000000000000000e+00 3.0634905202999998e+00 0.0000000000000000e+00
0.0000000000000000e+00 3.0634905202999998e+00 0.0000000000000000e+00
ITEM: ATOMS id type xs ys zs fx fy fz
1 1 0 0 0 -4.47068e-10 -4.47067e-10 -4.47069e-10
2 1 0.5 0.5 0.5 4.47067e-10 4.47068e-10 4.47069e-10
ITEM: TIMESTEP
1
ITEM: NUMBER OF ATOMS
2
ITEM: BOX BOUNDS xy xz yz pp pp pp
0.0000000000000000e+00 3.0634905202999998e+00 0.0000000000000000e+00
0.0000000000000000e+00 3.0634905202999998e+00 0.0000000000000000e+00
0.0000000000000000e+00 3.0634905202999998e+00 0.0000000000000000e+00
ITEM: ATOMS id type xs ys zs fx fy fz
1 1 -8.16064e-12 -8.16063e-12 -8.16066e-12 7.77156e-16 7.58942e-16 3.41954e-16
2 1 0.5 0.5 0.5 -6.93889e-16 -5.12611e-16 -2.92096e-16
