ITEM: TIMESTEP
0
ITEM: NUMBER OF ATOMS
2
ITEM: BOX BOUNDS xy xz yz pp pp pp
0.0000000000000000e+00 3.1822634733999999e+00 0.0000000000000000e+00
0.0000000000000000e+00 3.1822634733999999e+00 0.0000000000000000e+00
0.0000000000000000e+00 3.1822634733999999e+00 0.0000000000000000e+00
ITEM: ATOMS id type xs ys zs fx fy fz
1 1 0 0 0 -4.10783e-15 -4.39153e-15 -4.60826e-15
2 1 0.5 0.5 0.5 3.9968e-15 4.31995e-15 4.6268e-15
ITEM: TIMESTEP
1
ITEM: NUMBER OF ATOMS
2
ITEM: BOX BOUNDS xy xz yz pp pp pp
0.0000000000000000e+00 3.1822634733999999e+00 0.0000000000000000e+00
0.0000000000000000e+00 3.1822634733999999e+00 0.0000000000000000e+00
0.0000000000000000e+00 3.1822634733999999e+00 0.0000000000000000e+00
ITEM: ATOMS id type xs ys zs fx fy fz
1 1 -1.05049e-16 -1.12305e-16 -1.17847e-16 5.55112e-17 4.09641e-15 3.86676e-15
2 1 0.5 0.5 0.5 5.55112e-17 -4.1416e-15 -3.97989e-15
