ITEM: TIMESTEP
0
ITEM: NUMBER OF ATOMS
2
ITEM: BOX BOUNDS xy xz yz pp pp pp
0.0000000000000000e+00 3.1926292257000002e+00 0.0000000000000000e+00
0.0000000000000000e+00 3.1926292257000002e+00 0.0000000000000000e+00
0.0000000000000000e+00 3.1926292257000002e+00 0.0000000000000000e+00
ITEM: ATOMS id type xs ys zs fx fy fz
1 1 0 0 0 2.88881e-10 2.88882e-10 2.88881e-10
2 1 0.5 0.5 0.5 -2.88881e-10 -2.88882e-10 -2.88881e-10
ITEM: TIMESTEP
1
ITEM: NUMBER OF ATOMS
2
ITEM: BOX BOUNDS xy xz yz pp pp pp
0.0000000000000000e+00 3.1926292257000002e+00 0.0000000000000000e+00
0.0000000000000000e+00 3.1926292257000002e+00 0.0000000000000000e+00
0.0000000000000000e+00 3.1926292257000002e+00 0.0000000000000000e+00
ITEM: ATOMS id type xs ys zs fx fy fz
1 1 7.83055e-12 7.83058e-12 7.83054e-12 1.98452e-15 -1.19737e-15 1.03135e-15
2 1 0.5 0.5 0.5 -2.05391e-15 1.28684e-15 -1.10955e-15
