ITEM: TIMESTEP
0
ITEM: NUMBER OF ATOMS
2
ITEM: BOX BOUNDS xy xz yz pp pp pp
0.0000000000000000e+00 2.7662685818999999e+00 0.0000000000000000e+00
0.0000000000000000e+00 2.7662685818999999e+00 0.0000000000000000e+00
0.0000000000000000e+00 2.7662685818999999e+00 0.0000000000000000e+00
ITEM: ATOMS id type xs ys zs fx fy fz
1 1 0 0 0 -2.3162e-09 -2.3162e-09 -2.31621e-09
2 1 0.5 0.5 0.5 2.3162e-09 2.3162e-09 2.31621e-09
ITEM: TIMESTEP
1
ITEM: NUMBER OF ATOMS
2
ITEM: BOX BOUNDS xy xz yz pp pp pp
0.0000000000000000e+00 2.7662685818999999e+00 0.0000000000000000e+00
0.0000000000000000e+00 2.7662685818999999e+00 0.0000000000000000e+00
0.0000000000000000e+00 2.7662685818999999e+00 0.0000000000000000e+00
ITEM: ATOMS id type xs ys zs fx fy fz
1 1 0 0 0 -2.3162e-09 -2.3162e-09 -2.31621e-09
2 1 0.5 0.5 0.5 2.3162e-09 2.3162e-09 2.31621e-09
