
2 atoms
1 atom types
   0.0000000000    3.4852800160 xlo xhi
   0.0000000000    3.4852800160 ylo yhi
   0.0000000000    3.4852800160 zlo zhi
   0.0000000000    0.0000000000    0.0000000000 xy xz yz

Atoms # atomic

     1      1    0.0000000000    0.0000000000    0.0000000000
     2      1    1.7426400080    1.7426400080    1.7426400080
