
2 atoms
1 atom types
   0.0000000000    2.7384650058 xlo xhi
   0.0000000000    2.7384650058 ylo yhi
   0.0000000000    2.7384650058 zlo zhi
   0.0000000000    0.0000000000    0.0000000000 xy xz yz

Atoms # atomic

     1      1    0.0000000000    0.0000000000    0.0000000000
     2      1    1.3692325029    1.3692325029    1.3692325029
