
2 atoms
1 atom types
   0.0000000000    3.5196199616 xlo xhi
   0.0000000000    3.5196199616 ylo yhi
   0.0000000000    3.5196199616 zlo zhi
   0.0000000000    0.0000000000    0.0000000000 xy xz yz

Atoms # atomic

     1      1    0.0000000000    0.0000000000    0.0000000000
     2      1    1.7598099808    1.7598099808    1.7598099808
