ITEM: TIMESTEP
0
ITEM: NUMBER OF ATOMS
2
ITEM: BOX BOUNDS xy xz yz pp pp pp
0.0000000000000000e+00 3.5196199616000001e+00 0.0000000000000000e+00
0.0000000000000000e+00 3.5196199616000001e+00 0.0000000000000000e+00
0.0000000000000000e+00 3.5196199616000001e+00 0.0000000000000000e+00
ITEM: ATOMS id type xs ys zs fx fy fz
1 1 0 0 0 0 2.60209e-18 -1.88651e-16
2 1 0.5 0.5 0.5 1.11022e-16 -6.07153e-17 1.22081e-16
ITEM: TIMESTEP
1
ITEM: NUMBER OF ATOMS
2
ITEM: BOX BOUNDS xy xz yz pp pp pp
0.0000000000000000e+00 3.5196199616000001e+00 0.0000000000000000e+00
0.0000000000000000e+00 3.5196199616000001e+00 0.0000000000000000e+00
0.0000000000000000e+00 3.5196199616000001e+00 0.0000000000000000e+00
ITEM: ATOMS id type xs ys zs fx fy fz
1 1 0 0 0 0 2.60209e-18 -1.88651e-16
2 1 0.5 0.5 0.5 1.11022e-16 -6.07153e-17 1.22081e-16
