ITEM: TIMESTEP
0
ITEM: NUMBER OF ATOMS
2
ITEM: BOX BOUNDS xy xz yz pp pp pp
0.0000000000000000e+00 3.2131611676000000e+00 0.0000000000000000e+00
0.0000000000000000e+00 3.2131611676000000e+00 0.0000000000000000e+00
0.0000000000000000e+00 3.2131611676000000e+00 0.0000000000000000e+00
ITEM: ATOMS id type xs ys zs fx fy fz
1 1 0 0 0 1.66533e-16 9.27535e-17 -1.34685e-16
2 1 0.5 0.5 0.5 -3.33067e-16 -2.17708e-16 1.00099e-16
ITEM: TIMESTEP
1
ITEM: NUMBER OF ATOMS
2
ITEM: BOX BOUNDS xy xz yz pp pp pp
0.0000000000000000e+00 3.2131611676000000e+00 0.0000000000000000e+00
0.0000000000000000e+00 3.2131611676000000e+00 0.0000000000000000e+00
0.0000000000000000e+00 3.2131611676000000e+00 0.0000000000000000e+00
ITEM: ATOMS id type xs ys zs fx fy fz
1 1 0 0 0 1.66533e-16 2.64491e-16 -6.19893e-17
2 1 0.5 0.5 0.5 -3.33067e-16 -2.31477e-16 -1.06523e-17
