
2 atoms
1 atom types
   0.0000000000    2.9347159494 xlo xhi
   0.0000000000    2.9347159494 ylo yhi
   0.0000000000    2.9347159494 zlo zhi
   0.0000000000    0.0000000000    0.0000000000 xy xz yz

Atoms # atomic

     1      1    0.0000000000    0.0000000000    0.0000000000
     2      1    1.4673579747    1.4673579747    1.4673579747
