
2 atoms
1 atom types
   0.0000000000    2.6359400873 xlo xhi
   0.0000000000    2.6359400873 ylo yhi
   0.0000000000    2.6359400873 zlo zhi
   0.0000000000    0.0000000000    0.0000000000 xy xz yz

Atoms # atomic

     1      1    0.0000000000    0.0000000000    0.0000000000
     2      1    1.3179700436    1.3179700436    1.3179700436
