
2 atoms
1 atom types
   0.0000000000    2.6663663929 xlo xhi
   0.0000000000    2.6663663929 ylo yhi
   0.0000000000    2.6663663929 zlo zhi
   0.0000000000    0.0000000000    0.0000000000 xy xz yz

Atoms # atomic

     1      1    0.0000000000    0.0000000000    0.0000000000
     2      1    1.3331831964    1.3331831964    1.3331831964
