ITEM: TIMESTEP
0
ITEM: NUMBER OF ATOMS
2
ITEM: BOX BOUNDS xy xz yz pp pp pp
0.0000000000000000e+00 2.6663663929000001e+00 0.0000000000000000e+00
0.0000000000000000e+00 2.6663663929000001e+00 0.0000000000000000e+00
0.0000000000000000e+00 2.6663663929000001e+00 0.0000000000000000e+00
ITEM: ATOMS id type xs ys zs fx fy fz
1 1 0 0 0 6.27773e-10 6.27769e-10 6.27772e-10
2 1 0.5 0.5 0.5 -6.27773e-10 -6.27769e-10 -6.27773e-10
ITEM: TIMESTEP
33
ITEM: NUMBER OF ATOMS
2
ITEM: BOX BOUNDS xy xz yz pp pp pp
0.0000000000000000e+00 2.6663663929000001e+00 0.0000000000000000e+00
0.0000000000000000e+00 2.6663663929000001e+00 0.0000000000000000e+00
0.0000000000000000e+00 2.6663663929000001e+00 0.0000000000000000e+00
ITEM: ATOMS id type xs ys zs fx fy fz
1 1 0.0959645 1.84104e-08 -1.94501e-08 3.20273e-11 4.3856e-14 -4.19888e-12
2 1 0.404036 0.5 0.5 -3.20275e-11 -4.33018e-14 4.19982e-12
