
2 atoms
1 atom types
   0.0000000000    3.0073117875 xlo xhi
   0.0000000000    3.0073117875 ylo yhi
   0.0000000000    3.0073117875 zlo zhi
   0.0000000000    0.0000000000    0.0000000000 xy xz yz

Atoms # atomic

     1      1    0.0000000000    0.0000000000    0.0000000000
     2      1    1.5036558937    1.5036558937    1.5036558937
