
2 atoms
1 atom types
   0.0000000000    2.8505722153 xlo xhi
   0.0000000000    2.8505722153 ylo yhi
   0.0000000000    2.8505722153 zlo zhi
   0.0000000000    0.0000000000    0.0000000000 xy xz yz

Atoms # atomic

     1      1    0.0000000000    0.0000000000    0.0000000000
     2      1    1.4252861076    1.4252861076    1.4252861076
