ITEM: TIMESTEP
0
ITEM: NUMBER OF ATOMS
2
ITEM: BOX BOUNDS xy xz yz pp pp pp
0.0000000000000000e+00 3.5365414715000001e+00 0.0000000000000000e+00
0.0000000000000000e+00 3.5365414715000001e+00 0.0000000000000000e+00
0.0000000000000000e+00 3.5365414715000001e+00 0.0000000000000000e+00
ITEM: ATOMS id type xs ys zs fx fy fz
1 1 0 0 0 4.08766e-11 4.08767e-11 4.08766e-11
2 1 0.5 0.5 0.5 -4.08773e-11 -4.08773e-11 -4.08774e-11
ITEM: TIMESTEP
1
ITEM: NUMBER OF ATOMS
2
ITEM: BOX BOUNDS xy xz yz pp pp pp
0.0000000000000000e+00 3.5365414715000001e+00 0.0000000000000000e+00
0.0000000000000000e+00 3.5365414715000001e+00 0.0000000000000000e+00
0.0000000000000000e+00 3.5365414715000001e+00 0.0000000000000000e+00
ITEM: ATOMS id type xs ys zs fx fy fz
1 1 7.06896e-12 7.06898e-12 7.06896e-12 -4.44089e-16 -4.27609e-16 -9.92045e-17
2 1 0.5 0.5 0.5 2.77556e-16 4.63171e-16 1.90494e-16
