
2 atoms
1 atom types
   0.0000000000    2.8202581283 xlo xhi
   0.0000000000    2.8202581283 ylo yhi
   0.0000000000    2.8202581283 zlo zhi
   0.0000000000    0.0000000000    0.0000000000 xy xz yz

Atoms # atomic

     1      1    0.0000000000    0.0000000000    0.0000000000
     2      1    1.4101290641    1.4101290641    1.4101290641
