ITEM: TIMESTEP
0
ITEM: NUMBER OF ATOMS
2
ITEM: BOX BOUNDS xy xz yz pp pp pp
0.0000000000000000e+00 2.8202581282999999e+00 0.0000000000000000e+00
0.0000000000000000e+00 2.8202581282999999e+00 0.0000000000000000e+00
0.0000000000000000e+00 2.8202581282999999e+00 0.0000000000000000e+00
ITEM: ATOMS id type xs ys zs fx fy fz
1 1 0 0 0 1.66573e-10 1.66573e-10 1.66573e-10
2 1 0.5 0.5 0.5 -1.66573e-10 -1.66573e-10 -1.66572e-10
ITEM: TIMESTEP
1
ITEM: NUMBER OF ATOMS
2
ITEM: BOX BOUNDS xy xz yz pp pp pp
0.0000000000000000e+00 2.8202581282999999e+00 0.0000000000000000e+00
0.0000000000000000e+00 2.8202581282999999e+00 0.0000000000000000e+00
0.0000000000000000e+00 2.8202581282999999e+00 0.0000000000000000e+00
ITEM: ATOMS id type xs ys zs fx fy fz
1 1 0 0 0 1.66572e-10 1.66572e-10 1.66571e-10
2 1 0.5 0.5 0.5 -1.66572e-10 -1.66572e-10 -1.66571e-10
