
2 atoms
1 atom types
   0.0000000000    2.7942219736 xlo xhi
   0.0000000000    2.7942219736 ylo yhi
   0.0000000000    2.7942219736 zlo zhi
   0.0000000000    0.0000000000    0.0000000000 xy xz yz

Atoms # atomic

     1      1    0.0000000000    0.0000000000    0.0000000000
     2      1    1.3971109868    1.3971109868    1.3971109868
