
2 atoms
1 atom types
   0.0000000000    3.0522275858 xlo xhi
   0.0000000000    3.0522275858 ylo yhi
   0.0000000000    3.0522275858 zlo zhi
   0.0000000000    0.0000000000    0.0000000000 xy xz yz

Atoms # atomic

     1      1    0.0000000000    0.0000000000    0.0000000000
     2      1    1.5261137929    1.5261137929    1.5261137929
