ITEM: TIMESTEP
0
ITEM: NUMBER OF ATOMS
2
ITEM: BOX BOUNDS xy xz yz pp pp pp
0.0000000000000000e+00 3.0522275857999999e+00 0.0000000000000000e+00
0.0000000000000000e+00 3.0522275857999999e+00 0.0000000000000000e+00
0.0000000000000000e+00 3.0522275857999999e+00 0.0000000000000000e+00
ITEM: ATOMS id type xs ys zs fx fy fz
1 1 0 0 0 -7.77156e-16 -9.16151e-16 -6.03681e-16
2 1 0.5 0.5 0.5 1.22125e-15 9.45424e-16 5.32534e-16
ITEM: TIMESTEP
1
ITEM: NUMBER OF ATOMS
2
ITEM: BOX BOUNDS xy xz yz pp pp pp
0.0000000000000000e+00 3.0522275857999999e+00 0.0000000000000000e+00
0.0000000000000000e+00 3.0522275857999999e+00 0.0000000000000000e+00
0.0000000000000000e+00 3.0522275857999999e+00 0.0000000000000000e+00
ITEM: ATOMS id type xs ys zs fx fy fz
1 1 0 0 0 -7.77156e-16 -8.6064e-16 -6.03681e-16
2 1 0.5 0.5 0.5 1.22125e-15 9.45424e-16 5.34485e-16
