ITEM: TIMESTEP
0
ITEM: NUMBER OF ATOMS
2
ITEM: BOX BOUNDS xy xz yz pp pp pp
0.0000000000000000e+00 3.3311794645999999e+00 0.0000000000000000e+00
0.0000000000000000e+00 3.3311794645999999e+00 0.0000000000000000e+00
0.0000000000000000e+00 3.3311794645999999e+00 0.0000000000000000e+00
ITEM: ATOMS id type xs ys zs fx fy fz
1 1 0 0 0 -1.11022e-16 -4.24736e-17 -2.40259e-16
2 1 0.5 0.5 0.5 0 1.75641e-17 2.25839e-16
ITEM: TIMESTEP
1
ITEM: NUMBER OF ATOMS
2
ITEM: BOX BOUNDS xy xz yz pp pp pp
0.0000000000000000e+00 3.3311794645999999e+00 0.0000000000000000e+00
0.0000000000000000e+00 3.3311794645999999e+00 0.0000000000000000e+00
0.0000000000000000e+00 3.3311794645999999e+00 0.0000000000000000e+00
ITEM: ATOMS id type xs ys zs fx fy fz
1 1 0 0 0 -1.11022e-16 -4.24736e-17 -2.40259e-16
2 1 0.5 0.5 0.5 0 1.75641e-17 2.25839e-16
