
2 atoms
1 atom types
   0.0000000000    2.7252454975 xlo xhi
   0.0000000000    2.7252454975 ylo yhi
   0.0000000000    2.7252454975 zlo zhi
   0.0000000000    0.0000000000    0.0000000000 xy xz yz

Atoms # atomic

     1      1    0.0000000000    0.0000000000    0.0000000000
     2      1    1.3626227488    1.3626227488    1.3626227488
