
2 atoms
1 atom types
   0.0000000000    3.0967919393 xlo xhi
   0.0000000000    3.0967919393 ylo yhi
   0.0000000000    3.0967919393 zlo zhi
   0.0000000000    0.0000000000    0.0000000000 xy xz yz

Atoms # atomic

     1      1    0.0000000000    0.0000000000    0.0000000000
     2      1    1.5483959696    1.5483959696    1.5483959696
