ITEM: TIMESTEP
0
ITEM: NUMBER OF ATOMS
2
ITEM: BOX BOUNDS xy xz yz pp pp pp
0.0000000000000000e+00 3.0967919393000001e+00 0.0000000000000000e+00
0.0000000000000000e+00 3.0967919393000001e+00 0.0000000000000000e+00
0.0000000000000000e+00 3.0967919393000001e+00 0.0000000000000000e+00
ITEM: ATOMS id type xs ys zs fx fy fz
1 1 0 0 0 -3.79133e-10 -3.79134e-10 -3.79133e-10
2 1 0.5 0.5 0.5 3.79133e-10 3.79134e-10 3.79133e-10
ITEM: TIMESTEP
1
ITEM: NUMBER OF ATOMS
2
ITEM: BOX BOUNDS xy xz yz pp pp pp
0.0000000000000000e+00 3.0967919393000001e+00 0.0000000000000000e+00
0.0000000000000000e+00 3.0967919393000001e+00 0.0000000000000000e+00
0.0000000000000000e+00 3.0967919393000001e+00 0.0000000000000000e+00
ITEM: ATOMS id type xs ys zs fx fy fz
1 1 -8.07285e-12 -8.07287e-12 -8.07286e-12 1.9984e-15 2.01922e-15 1.66346e-15
2 1 0.5 0.5 0.5 -2.05391e-15 -1.61844e-15 -1.63375e-15
