
2 atoms
1 atom types
   0.0000000000    2.5421968464 xlo xhi
   0.0000000000    2.5421968464 ylo yhi
   0.0000000000    2.5421968464 zlo zhi
   0.0000000000    0.0000000000    0.0000000000 xy xz yz

Atoms # atomic

     1      1    0.0000000000    0.0000000000    0.0000000000
     2      1    1.2710984232    1.2710984232    1.2710984232
