
2 atoms
1 atom types
   0.0000000000    3.4939283890 xlo xhi
   0.0000000000    3.4939283890 ylo yhi
   0.0000000000    3.4939283890 zlo zhi
   0.0000000000    0.0000000000    0.0000000000 xy xz yz

Atoms # atomic

     1      1    0.0000000000    0.0000000000    0.0000000000
     2      1    1.7469641945    1.7469641945    1.7469641945
