ITEM: TIMESTEP
0
ITEM: NUMBER OF ATOMS
2
ITEM: BOX BOUNDS xy xz yz pp pp pp
0.0000000000000000e+00 3.0294489191000000e+00 0.0000000000000000e+00
0.0000000000000000e+00 3.0294489191000000e+00 0.0000000000000000e+00
0.0000000000000000e+00 3.0294489191000000e+00 0.0000000000000000e+00
ITEM: ATOMS id type xs ys zs fx fy fz
1 1 0 0 0 -5.03685e-10 -5.03684e-10 -5.03685e-10
2 1 0.5 0.5 0.5 5.03685e-10 5.03684e-10 5.03685e-10
ITEM: TIMESTEP
1
ITEM: NUMBER OF ATOMS
2
ITEM: BOX BOUNDS xy xz yz pp pp pp
0.0000000000000000e+00 3.0294489191000000e+00 0.0000000000000000e+00
0.0000000000000000e+00 3.0294489191000000e+00 0.0000000000000000e+00
0.0000000000000000e+00 3.0294489191000000e+00 0.0000000000000000e+00
ITEM: ATOMS id type xs ys zs fx fy fz
1 1 -8.25229e-12 -8.25228e-12 -8.2523e-12 4.44089e-16 -3.52995e-15 1.09848e-15
2 1 0.5 0.5 0.5 -5.13478e-16 3.55411e-15 -7.19869e-16
