ITEM: TIMESTEP
0
ITEM: NUMBER OF ATOMS
2
ITEM: BOX BOUNDS xy xz yz pp pp pp
0.0000000000000000e+00 2.8464945942000002e+00 0.0000000000000000e+00
0.0000000000000000e+00 2.8464945942000002e+00 0.0000000000000000e+00
0.0000000000000000e+00 2.8464945942000002e+00 0.0000000000000000e+00
ITEM: ATOMS id type xs ys zs fx fy fz
1 1 0 0 0 1.77636e-15 1.63064e-16 -4.87455e-16
2 1 0.5 0.5 0.5 -1.77636e-15 9.60169e-16 -1.94256e-16
ITEM: TIMESTEP
1
ITEM: NUMBER OF ATOMS
2
ITEM: BOX BOUNDS xy xz yz pp pp pp
0.0000000000000000e+00 2.8464945942000002e+00 0.0000000000000000e+00
0.0000000000000000e+00 2.8464945942000002e+00 0.0000000000000000e+00
0.0000000000000000e+00 2.8464945942000002e+00 0.0000000000000000e+00
ITEM: ATOMS id type xs ys zs fx fy fz
1 1 3.40775e-17 3.12821e-18 -9.35129e-18 8.88178e-16 6.9389e-17 -2.8536e-16
2 1 0.5 0.5 0.5 -2.22045e-16 -4.38017e-16 -5.412e-16
