
2 atoms
1 atom types
   0.0000000000    2.9589709002 xlo xhi
   0.0000000000    2.9589709002 ylo yhi
   0.0000000000    2.9589709002 zlo zhi
   0.0000000000    0.0000000000    0.0000000000 xy xz yz

Atoms # atomic

     1      1    0.0000000000    0.0000000000    0.0000000000
     2      1    1.4794854501    1.4794854501    1.4794854501
