
2 atoms
1 atom types
   0.0000000000    3.0659176801 xlo xhi
   0.0000000000    3.0659176801 ylo yhi
   0.0000000000    3.0659176801 zlo zhi
   0.0000000000    0.0000000000    0.0000000000 xy xz yz

Atoms # atomic

     1      1    0.0000000000    0.0000000000    0.0000000000
     2      1    1.5329588401    1.5329588401    1.5329588401
