
2 atoms
1 atom types
   0.0000000000    3.0304458642 xlo xhi
   0.0000000000    3.0304458642 ylo yhi
   0.0000000000    3.0304458642 zlo zhi
   0.0000000000    0.0000000000    0.0000000000 xy xz yz

Atoms # atomic

     1      1    0.0000000000    0.0000000000    0.0000000000
     2      1    1.5152229321    1.5152229321    1.5152229321
