ITEM: TIMESTEP
0
ITEM: NUMBER OF ATOMS
2
ITEM: BOX BOUNDS xy xz yz pp pp pp
0.0000000000000000e+00 3.2633749215000001e+00 0.0000000000000000e+00
0.0000000000000000e+00 3.2633749215000001e+00 0.0000000000000000e+00
0.0000000000000000e+00 3.2633749215000001e+00 0.0000000000000000e+00
ITEM: ATOMS id type xs ys zs fx fy fz
1 1 0 0 0 -2.17447e-10 -2.17447e-10 -2.17447e-10
2 1 0.5 0.5 0.5 2.17447e-10 2.17447e-10 2.17447e-10
ITEM: TIMESTEP
1
ITEM: NUMBER OF ATOMS
2
ITEM: BOX BOUNDS xy xz yz pp pp pp
0.0000000000000000e+00 3.2633749215000001e+00 0.0000000000000000e+00
0.0000000000000000e+00 3.2633749215000001e+00 0.0000000000000000e+00
0.0000000000000000e+00 3.2633749215000001e+00 0.0000000000000000e+00
ITEM: ATOMS id type xs ys zs fx fy fz
1 1 -7.66079e-12 -7.66078e-12 -7.66081e-12 2.22045e-16 2.49638e-16 2.59558e-16
2 1 0.5 0.5 0.5 -2.22045e-16 -3.32145e-16 -2.56902e-16
