
2 atoms
1 atom types
   0.0000000000    2.8732013420 xlo xhi
   0.0000000000    2.8732013420 ylo yhi
   0.0000000000    2.8732013420 zlo zhi
   0.0000000000    0.0000000000    0.0000000000 xy xz yz

Atoms # atomic

     1      1    0.0000000000    0.0000000000    0.0000000000
     2      1    1.4366006710    1.4366006710    1.4366006710
