ITEM: TIMESTEP
0
ITEM: NUMBER OF ATOMS
2
ITEM: BOX BOUNDS xy xz yz pp pp pp
0.0000000000000000e+00 3.0179299906999999e+00 0.0000000000000000e+00
0.0000000000000000e+00 3.0179299906999999e+00 0.0000000000000000e+00
0.0000000000000000e+00 3.0179299906999999e+00 0.0000000000000000e+00
ITEM: ATOMS id type xs ys zs fx fy fz
1 1 0 0 0 -5.18236e-10 -5.18236e-10 -5.18236e-10
2 1 0.5 0.5 0.5 5.18236e-10 5.18236e-10 5.18236e-10
ITEM: TIMESTEP
1
ITEM: NUMBER OF ATOMS
2
ITEM: BOX BOUNDS xy xz yz pp pp pp
0.0000000000000000e+00 3.0179299906999999e+00 0.0000000000000000e+00
0.0000000000000000e+00 3.0179299906999999e+00 0.0000000000000000e+00
0.0000000000000000e+00 3.0179299906999999e+00 0.0000000000000000e+00
ITEM: ATOMS id type xs ys zs fx fy fz
1 1 -8.28379e-12 -8.2838e-12 -8.2838e-12 -8.88178e-16 -5.74193e-16 -1.27327e-15
2 1 0.5 0.5 0.5 9.71445e-16 6.46351e-16 1.3295e-15
