ITEM: TIMESTEP
0
ITEM: NUMBER OF ATOMS
2
ITEM: BOX BOUNDS xy xz yz pp pp pp
0.0000000000000000e+00 3.4054361952000001e+00 0.0000000000000000e+00
0.0000000000000000e+00 3.4054361952000001e+00 0.0000000000000000e+00
0.0000000000000000e+00 3.4054361952000001e+00 0.0000000000000000e+00
ITEM: ATOMS id type xs ys zs fx fy fz
1 1 0 0 0 0 1.10372e-16 -6.00106e-17
2 1 0.5 0.5 0.5 -1.11022e-16 -1.0365e-16 2.28631e-17
ITEM: TIMESTEP
1
ITEM: NUMBER OF ATOMS
2
ITEM: BOX BOUNDS xy xz yz pp pp pp
0.0000000000000000e+00 3.4054361952000001e+00 0.0000000000000000e+00
0.0000000000000000e+00 3.4054361952000001e+00 0.0000000000000000e+00
0.0000000000000000e+00 3.4054361952000001e+00 0.0000000000000000e+00
ITEM: ATOMS id type xs ys zs fx fy fz
1 1 0 0 0 0 1.10372e-16 -6.00106e-17
2 1 0.5 0.5 0.5 -1.11022e-16 -1.0365e-16 2.28631e-17
