ITEM: TIMESTEP
0
ITEM: NUMBER OF ATOMS
2
ITEM: BOX BOUNDS xy xz yz pp pp pp
0.0000000000000000e+00 3.4590739117000000e+00 0.0000000000000000e+00
0.0000000000000000e+00 3.4590739117000000e+00 0.0000000000000000e+00
0.0000000000000000e+00 3.4590739117000000e+00 0.0000000000000000e+00
ITEM: ATOMS id type xs ys zs fx fy fz
1 1 0 0 0 4.28475e-11 4.28475e-11 4.28474e-11
2 1 0.5 0.5 0.5 -4.28476e-11 -4.28476e-11 -4.28472e-11
ITEM: TIMESTEP
1
ITEM: NUMBER OF ATOMS
2
ITEM: BOX BOUNDS xy xz yz pp pp pp
0.0000000000000000e+00 3.4590739117000000e+00 0.0000000000000000e+00
0.0000000000000000e+00 3.4590739117000000e+00 0.0000000000000000e+00
0.0000000000000000e+00 3.4590739117000000e+00 0.0000000000000000e+00
ITEM: ATOMS id type xs ys zs fx fy fz
1 1 7.22745e-12 7.22744e-12 7.22743e-12 -4.44089e-16 -8.67367e-18 2.12287e-16
2 1 0.5 0.5 0.5 2.22045e-16 -1.80845e-16 -2.4535e-16
