
2 atoms
1 atom types
   0.0000000000    3.1304219797 xlo xhi
   0.0000000000    3.1304219797 ylo yhi
   0.0000000000    3.1304219797 zlo zhi
   0.0000000000    0.0000000000    0.0000000000 xy xz yz

Atoms # atomic

     1      1    0.0000000000    0.0000000000    0.0000000000
     2      1    1.5652109899    1.5652109899    1.5652109899
