
2 atoms
1 atom types
   0.0000000000    2.9100533048 xlo xhi
   0.0000000000    2.9100533048 ylo yhi
   0.0000000000    2.9100533048 zlo zhi
   0.0000000000    0.0000000000    0.0000000000 xy xz yz

Atoms # atomic

     1      1    0.0000000000    0.0000000000    0.0000000000
     2      1    1.4550266524    1.4550266524    1.4550266524
