
2 atoms
1 atom types
   0.0000000000    3.3129164764 xlo xhi
   0.0000000000    3.3129164764 ylo yhi
   0.0000000000    3.3129164764 zlo zhi
   0.0000000000    0.0000000000    0.0000000000 xy xz yz

Atoms # atomic

     1      1    0.0000000000    0.0000000000    0.0000000000
     2      1    1.6564582382    1.6564582382    1.6564582382
