
2 atoms
1 atom types
   0.0000000000    2.5560134050 xlo xhi
   0.0000000000    2.5560134050 ylo yhi
   0.0000000000    2.5560134050 zlo zhi
   0.0000000000    0.0000000000    0.0000000000 xy xz yz

Atoms # atomic

     1      1    0.0000000000    0.0000000000    0.0000000000
     2      1    1.2780067025    1.2780067025    1.2780067025
