
2 atoms
1 atom types
   0.0000000000    2.6965565722 xlo xhi
   0.0000000000    2.6965565722 ylo yhi
   0.0000000000    2.6965565722 zlo zhi
   0.0000000000    0.0000000000    0.0000000000 xy xz yz

Atoms # atomic

     1      1    0.0000000000    0.0000000000    0.0000000000
     2      1    1.3482782861    1.3482782861    1.3482782861
