
2 atoms
1 atom types
   0.0000000000    2.8594333838 xlo xhi
   0.0000000000    2.8594333838 ylo yhi
   0.0000000000    2.8594333838 zlo zhi
   0.0000000000    0.0000000000    0.0000000000 xy xz yz

Atoms # atomic

     1      1    0.0000000000    0.0000000000    0.0000000000
     2      1    1.4297166919    1.4297166919    1.4297166919
