ITEM: TIMESTEP
0
ITEM: NUMBER OF ATOMS
2
ITEM: BOX BOUNDS xy xz yz pp pp pp
0.0000000000000000e+00 3.1401093249000001e+00 0.0000000000000000e+00
0.0000000000000000e+00 3.1401093249000001e+00 0.0000000000000000e+00
0.0000000000000000e+00 3.1401093249000001e+00 0.0000000000000000e+00
ITEM: ATOMS id type xs ys zs fx fy fz
1 1 0 0 0 -3.42738e-10 -3.42737e-10 -3.42738e-10
2 1 0.5 0.5 0.5 3.42737e-10 3.42737e-10 3.42738e-10
ITEM: TIMESTEP
1
ITEM: NUMBER OF ATOMS
2
ITEM: BOX BOUNDS xy xz yz pp pp pp
0.0000000000000000e+00 3.1401093249000001e+00 0.0000000000000000e+00
0.0000000000000000e+00 3.1401093249000001e+00 0.0000000000000000e+00
0.0000000000000000e+00 3.1401093249000001e+00 0.0000000000000000e+00
ITEM: ATOMS id type xs ys zs fx fy fz
1 1 -7.96153e-12 -7.96151e-12 -7.96153e-12 -2.22045e-16 2.8341e-16 -3.54101e-16
2 1 0.5 0.5 0.5 8.32667e-17 -3.73833e-16 4.04082e-16
