ITEM: TIMESTEP
0
ITEM: NUMBER OF ATOMS
2
ITEM: BOX BOUNDS xy xz yz pp pp pp
0.0000000000000000e+00 3.1623672675000001e+00 0.0000000000000000e+00
0.0000000000000000e+00 3.1623672675000001e+00 0.0000000000000000e+00
0.0000000000000000e+00 3.1623672675000001e+00 0.0000000000000000e+00
ITEM: ATOMS id type xs ys zs fx fy fz
1 1 0 0 0 2.81271e-10 2.81271e-10 2.81271e-10
2 1 0.5 0.5 0.5 -2.81271e-10 -2.81271e-10 -2.81272e-10
ITEM: TIMESTEP
4
ITEM: NUMBER OF ATOMS
2
ITEM: BOX BOUNDS xy xz yz pp pp pp
2.9866749401851362e-04 3.1620686000059814e+00 0.0000000000000000e+00
2.9866749401851362e-04 3.1620686000059814e+00 0.0000000000000000e+00
2.9866749401851362e-04 3.1620686000059814e+00 0.0000000000000000e+00
ITEM: ATOMS id type xs ys zs fx fy fz
1 1 7.90221e-12 7.90222e-12 7.90222e-12 1.18044e-13 1.18164e-13 1.17915e-13
2 1 0.5 0.5 0.5 -1.18017e-13 -1.18276e-13 -1.17921e-13
ITEM: TIMESTEP
5
ITEM: NUMBER OF ATOMS
2
ITEM: BOX BOUNDS xy xz yz pp pp pp
2.9866749371971417e-04 3.1620686000062803e+00 0.0000000000000000e+00
2.9866749371971438e-04 3.1620686000062803e+00 0.0000000000000000e+00
2.9866749371970614e-04 3.1620686000062803e+00 0.0000000000000000e+00
ITEM: ATOMS id type xs ys zs fx fy fz
1 1 7.90246e-12 7.90247e-12 7.90247e-12 1.06637e-13 1.09831e-13 1.069e-13
2 1 0.5 0.5 0.5 -1.06498e-13 -1.09957e-13 -1.06786e-13
ITEM: TIMESTEP
6
ITEM: NUMBER OF ATOMS
2
ITEM: BOX BOUNDS xy xz yz pp pp pp
2.9866749372304261e-04 3.1620686000062768e+00 -5.0946029545270506e-18
2.9866749372300954e-04 3.1620686000062772e+00 -1.7177678852134874e-18
2.9866749372307048e-04 3.1620686000062768e+00 -2.2318624465435661e-17
ITEM: ATOMS id type xs ys zs fx fy fz
1 1 7.90275e-12 7.90277e-12 7.90277e-12 9.56735e-14 9.67393e-14 9.37423e-14
2 1 0.5 0.5 0.5 -9.57567e-14 -9.6644e-14 -9.37218e-14
