
2 atoms
1 atom types
   0.0000000000    2.9570339336 xlo xhi
   0.0000000000    2.9570339336 ylo yhi
   0.0000000000    2.9570339336 zlo zhi
   0.0000000000    0.0000000000    0.0000000000 xy xz yz

Atoms # atomic

     1      1    0.0000000000    0.0000000000    0.0000000000
     2      1    1.4785169668    1.4785169668    1.4785169668
