ITEM: TIMESTEP
0
ITEM: NUMBER OF ATOMS
2
ITEM: BOX BOUNDS xy xz yz pp pp pp
0.0000000000000000e+00 3.3406430935000002e+00 0.0000000000000000e+00
0.0000000000000000e+00 3.3406430935000002e+00 0.0000000000000000e+00
0.0000000000000000e+00 3.3406430935000002e+00 0.0000000000000000e+00
ITEM: ATOMS id type xs ys zs fx fy fz
1 1 0 0 0 8.82966e-11 8.82964e-11 8.82952e-11
2 1 0.5 0.5 0.5 -8.82964e-11 -8.82964e-11 -8.82951e-11
ITEM: TIMESTEP
1
ITEM: NUMBER OF ATOMS
2
ITEM: BOX BOUNDS xy xz yz pp pp pp
0.0000000000000000e+00 3.3406430935000002e+00 0.0000000000000000e+00
0.0000000000000000e+00 3.3406430935000002e+00 0.0000000000000000e+00
0.0000000000000000e+00 3.3406430935000002e+00 0.0000000000000000e+00
ITEM: ATOMS id type xs ys zs fx fy fz
1 1 7.48358e-12 7.48356e-12 7.48346e-12 -1.33227e-15 -1.07539e-15 1.19767e-15
2 1 0.5 0.5 0.5 1.16573e-15 1.13885e-15 -1.0084e-15
