ITEM: TIMESTEP
0
ITEM: NUMBER OF ATOMS
2
ITEM: BOX BOUNDS xy xz yz pp pp pp
0.0000000000000000e+00 3.4765885085999999e+00 0.0000000000000000e+00
0.0000000000000000e+00 3.4765885085999999e+00 0.0000000000000000e+00
0.0000000000000000e+00 3.4765885085999999e+00 0.0000000000000000e+00
ITEM: ATOMS id type xs ys zs fx fy fz
1 1 0 0 0 0 5.76796e-17 2.40693e-17
2 1 0.5 0.5 0.5 -1.11022e-16 7.22079e-17 3.14419e-17
ITEM: TIMESTEP
1
ITEM: NUMBER OF ATOMS
2
ITEM: BOX BOUNDS xy xz yz pp pp pp
0.0000000000000000e+00 3.4765885085999999e+00 0.0000000000000000e+00
0.0000000000000000e+00 3.4765885085999999e+00 0.0000000000000000e+00
0.0000000000000000e+00 3.4765885085999999e+00 0.0000000000000000e+00
ITEM: ATOMS id type xs ys zs fx fy fz
1 1 0 0 0 0 5.76796e-17 2.40693e-17
2 1 0.5 0.5 0.5 -1.11022e-16 7.22079e-17 3.14419e-17
