
2 atoms
1 atom types
   0.0000000000    3.3024609712 xlo xhi
   0.0000000000    3.3024609712 ylo yhi
   0.0000000000    3.3024609712 zlo zhi
   0.0000000000    0.0000000000    0.0000000000 xy xz yz

Atoms # atomic

     1      1    0.0000000000    0.0000000000    0.0000000000
     2      1    1.6512304856    1.6512304856    1.6512304856
