
2 atoms
1 atom types
   0.0000000000    3.5292620501 xlo xhi
   0.0000000000    3.5292620501 ylo yhi
   0.0000000000    3.5292620501 zlo zhi
   0.0000000000    0.0000000000    0.0000000000 xy xz yz

Atoms # atomic

     1      1    0.0000000000    0.0000000000    0.0000000000
     2      1    1.7646310251    1.7646310251    1.7646310251
