
2 atoms
1 atom types
   0.0000000000    3.3963307073 xlo xhi
   0.0000000000    3.3963307073 ylo yhi
   0.0000000000    3.3963307073 zlo zhi
   0.0000000000    0.0000000000    0.0000000000 xy xz yz

Atoms # atomic

     1      1    0.0000000000    0.0000000000    0.0000000000
     2      1    1.6981653537    1.6981653537    1.6981653537
