ITEM: TIMESTEP
0
ITEM: NUMBER OF ATOMS
2
ITEM: BOX BOUNDS xy xz yz pp pp pp
0.0000000000000000e+00 3.3963307073000002e+00 0.0000000000000000e+00
0.0000000000000000e+00 3.3963307073000002e+00 0.0000000000000000e+00
0.0000000000000000e+00 3.3963307073000002e+00 0.0000000000000000e+00
ITEM: ATOMS id type xs ys zs fx fy fz
1 1 0 0 0 3.74305e-11 3.7431e-11 3.74306e-11
2 1 0.5 0.5 0.5 -3.74305e-11 -3.7431e-11 -3.74305e-11
ITEM: TIMESTEP
1
ITEM: NUMBER OF ATOMS
2
ITEM: BOX BOUNDS xy xz yz pp pp pp
0.0000000000000000e+00 3.3963307073000002e+00 0.0000000000000000e+00
0.0000000000000000e+00 3.3963307073000002e+00 0.0000000000000000e+00
0.0000000000000000e+00 3.3963307073000002e+00 0.0000000000000000e+00
ITEM: ATOMS id type xs ys zs fx fy fz
1 1 7.36085e-12 7.36096e-12 7.36087e-12 4.44089e-16 -1.33531e-15 3.61581e-16
2 1 0.5 0.5 0.5 -8.88178e-16 1.41728e-15 -4.46739e-16
