
2 atoms
1 atom types
   0.0000000000    2.6487985351 xlo xhi
   0.0000000000    2.6487985351 ylo yhi
   0.0000000000    2.6487985351 zlo zhi
   0.0000000000    0.0000000000    0.0000000000 xy xz yz

Atoms # atomic

     1      1    0.0000000000    0.0000000000    0.0000000000
     2      1    1.3243992675    1.3243992675    1.3243992675
