
2 atoms
1 atom types
   0.0000000000    3.4235025077 xlo xhi
   0.0000000000    3.4235025077 ylo yhi
   0.0000000000    3.4235025077 zlo zhi
   0.0000000000    0.0000000000    0.0000000000 xy xz yz

Atoms # atomic

     1      1    0.0000000000    0.0000000000    0.0000000000
     2      1    1.7117512539    1.7117512539    1.7117512539
