ITEM: TIMESTEP
0
ITEM: NUMBER OF ATOMS
2
ITEM: BOX BOUNDS xy xz yz pp pp pp
0.0000000000000000e+00 3.4235025076999999e+00 0.0000000000000000e+00
0.0000000000000000e+00 3.4235025076999999e+00 0.0000000000000000e+00
0.0000000000000000e+00 3.4235025076999999e+00 0.0000000000000000e+00
ITEM: ATOMS id type xs ys zs fx fy fz
1 1 0 0 0 2.36395e-11 2.36398e-11 2.36393e-11
2 1 0.5 0.5 0.5 -2.36394e-11 -2.36395e-11 -2.36395e-11
ITEM: TIMESTEP
1
ITEM: NUMBER OF ATOMS
2
ITEM: BOX BOUNDS xy xz yz pp pp pp
0.0000000000000000e+00 3.4235025076999999e+00 0.0000000000000000e+00
0.0000000000000000e+00 3.4235025076999999e+00 0.0000000000000000e+00
0.0000000000000000e+00 3.4235025076999999e+00 0.0000000000000000e+00
ITEM: ATOMS id type xs ys zs fx fy fz
1 1 0 0 0 2.36393e-11 2.36396e-11 2.36393e-11
2 1 0.5 0.5 0.5 -2.36394e-11 -2.36397e-11 -2.36394e-11
