ITEM: TIMESTEP
0
ITEM: NUMBER OF ATOMS
2
ITEM: BOX BOUNDS xy xz yz pp pp pp
0.0000000000000000e+00 3.0063224529000001e+00 0.0000000000000000e+00
0.0000000000000000e+00 3.0063224529000001e+00 0.0000000000000000e+00
0.0000000000000000e+00 3.0063224529000001e+00 0.0000000000000000e+00
ITEM: ATOMS id type xs ys zs fx fy fz
1 1 0 0 0 5.30617e-10 5.30618e-10 5.30618e-10
2 1 0.5 0.5 0.5 -5.30617e-10 -5.30618e-10 -5.30618e-10
ITEM: TIMESTEP
1
ITEM: NUMBER OF ATOMS
2
ITEM: BOX BOUNDS xy xz yz pp pp pp
0.0000000000000000e+00 3.0063224529000001e+00 0.0000000000000000e+00
0.0000000000000000e+00 3.0063224529000001e+00 0.0000000000000000e+00
0.0000000000000000e+00 3.0063224529000001e+00 0.0000000000000000e+00
ITEM: ATOMS id type xs ys zs fx fy fz
1 1 8.3158e-12 8.31581e-12 8.31581e-12 -4.44089e-16 -4.71845e-16 -2.89643e-16
2 1 0.5 0.5 0.5 5.27356e-16 3.99318e-16 2.42256e-16
