
2 atoms
1 atom types
   0.0000000000    2.7710323404 xlo xhi
   0.0000000000    2.7710323404 ylo yhi
   0.0000000000    2.7710323404 zlo zhi
   0.0000000000    0.0000000000    0.0000000000 xy xz yz

Atoms # atomic

     1      1    0.0000000000    0.0000000000    0.0000000000
     2      1    1.3855161702    1.3855161702    1.3855161702
