
2 atoms
1 atom types
   0.0000000000    2.5282284500 xlo xhi
   0.0000000000    2.5282284500 ylo yhi
   0.0000000000    2.5282284500 zlo zhi
   0.0000000000    0.0000000000    0.0000000000 xy xz yz

Atoms # atomic

     1      1    0.0000000000    0.0000000000    0.0000000000
     2      1    1.2641142250    1.2641142250    1.2641142250
