ITEM: TIMESTEP
0
ITEM: NUMBER OF ATOMS
2
ITEM: BOX BOUNDS xy xz yz pp pp pp
0.0000000000000000e+00 3.1507538447000001e+00 0.0000000000000000e+00
0.0000000000000000e+00 3.1507538447000001e+00 0.0000000000000000e+00
0.0000000000000000e+00 3.1507538447000001e+00 0.0000000000000000e+00
ITEM: ATOMS id type xs ys zs fx fy fz
1 1 0 0 0 -3.35305e-10 -3.35305e-10 -3.35306e-10
2 1 0.5 0.5 0.5 3.35305e-10 3.35305e-10 3.35306e-10
ITEM: TIMESTEP
1
ITEM: NUMBER OF ATOMS
2
ITEM: BOX BOUNDS xy xz yz pp pp pp
0.0000000000000000e+00 3.1507538447000001e+00 0.0000000000000000e+00
0.0000000000000000e+00 3.1507538447000001e+00 0.0000000000000000e+00
0.0000000000000000e+00 3.1507538447000001e+00 0.0000000000000000e+00
ITEM: ATOMS id type xs ys zs fx fy fz
1 1 -7.93462e-12 -7.93462e-12 -7.93464e-12 4.996e-16 3.01625e-16 3.06829e-16
2 1 0.5 0.5 0.5 -4.44089e-16 -4.51462e-16 -4.65665e-16
