ITEM: TIMESTEP
0
ITEM: NUMBER OF ATOMS
2
ITEM: BOX BOUNDS xy xz yz pp pp pp
0.0000000000000000e+00 2.9224366596000002e+00 0.0000000000000000e+00
0.0000000000000000e+00 2.9224366596000002e+00 0.0000000000000000e+00
0.0000000000000000e+00 2.9224366596000002e+00 0.0000000000000000e+00
ITEM: ATOMS id type xs ys zs fx fy fz
1 1 0 0 0 -2.66454e-15 -1.86873e-15 -2.21415e-15
2 1 0.5 0.5 0.5 1.66533e-15 1.88337e-15 2.15986e-15
ITEM: TIMESTEP
1
ITEM: NUMBER OF ATOMS
2
ITEM: BOX BOUNDS xy xz yz pp pp pp
0.0000000000000000e+00 2.9224366596000002e+00 0.0000000000000000e+00
0.0000000000000000e+00 2.9224366596000002e+00 0.0000000000000000e+00
0.0000000000000000e+00 2.9224366596000002e+00 0.0000000000000000e+00
ITEM: ATOMS id type xs ys zs fx fy fz
1 1 -3.79457e-17 -2.66126e-17 -3.15318e-17 -2.66454e-15 -1.86873e-15 -2.21415e-15
2 1 0.5 0.5 0.5 1.66533e-15 1.88337e-15 2.15986e-15
