ITEM: TIMESTEP
0
ITEM: NUMBER OF ATOMS
2
ITEM: BOX BOUNDS xy xz yz pp pp pp
0.0000000000000000e+00 2.7100850877000000e+00 0.0000000000000000e+00
0.0000000000000000e+00 2.7100850877000000e+00 0.0000000000000000e+00
0.0000000000000000e+00 2.7100850877000000e+00 0.0000000000000000e+00
ITEM: ATOMS id type xs ys zs fx fy fz
1 1 0 0 0 1.23797e-09 1.23797e-09 1.23797e-09
2 1 0.5 0.5 0.5 -1.23797e-09 -1.23797e-09 -1.23797e-09
ITEM: TIMESTEP
31
ITEM: NUMBER OF ATOMS
2
ITEM: BOX BOUNDS xy xz yz pp pp pp
0.0000000000000000e+00 2.7100850877000000e+00 0.0000000000000000e+00
0.0000000000000000e+00 2.7100850877000000e+00 0.0000000000000000e+00
0.0000000000000000e+00 2.7100850877000000e+00 0.0000000000000000e+00
ITEM: ATOMS id type xs ys zs fx fy fz
1 1 -2.73657e-09 0.0924851 9.27555e-09 4.44089e-16 3.44919e-13 -4.2849e-16
2 1 0.5 0.407515 0.5 -1.11022e-15 -3.45168e-13 1.01478e-15
