
2 atoms
1 atom types
   0.0000000000    3.0849021743 xlo xhi
   0.0000000000    3.0849021743 ylo yhi
   0.0000000000    3.0849021743 zlo zhi
   0.0000000000    0.0000000000    0.0000000000 xy xz yz

Atoms # atomic

     1      1    0.0000000000    0.0000000000    0.0000000000
     2      1    1.5424510872    1.5424510872    1.5424510872
