
2 atoms
1 atom types
   0.0000000000    2.6810979979 xlo xhi
   0.0000000000    2.6810979979 ylo yhi
   0.0000000000    2.6810979979 zlo zhi
   0.0000000000    0.0000000000    0.0000000000 xy xz yz

Atoms # atomic

     1      1    0.0000000000    0.0000000000    0.0000000000
     2      1    1.3405489989    1.3405489989    1.3405489989
