
2 atoms
1 atom types
   0.0000000000    3.0857712342 xlo xhi
   0.0000000000    3.0857712342 ylo yhi
   0.0000000000    3.0857712342 zlo zhi
   0.0000000000    0.0000000000    0.0000000000 xy xz yz

Atoms # atomic

     1      1    0.0000000000    0.0000000000    0.0000000000
     2      1    1.5428856171    1.5428856171    1.5428856171
