ITEM: TIMESTEP
0
ITEM: NUMBER OF ATOMS
2
ITEM: BOX BOUNDS xy xz yz pp pp pp
0.0000000000000000e+00 3.0857712342000001e+00 0.0000000000000000e+00
0.0000000000000000e+00 3.0857712342000001e+00 0.0000000000000000e+00
0.0000000000000000e+00 3.0857712342000001e+00 0.0000000000000000e+00
ITEM: ATOMS id type xs ys zs fx fy fz
1 1 0 0 0 2.22045e-16 2.87097e-16 2.6368e-16
2 1 0.5 0.5 0.5 -4.71845e-16 -3.37404e-16 -3.42929e-16
ITEM: TIMESTEP
1
ITEM: NUMBER OF ATOMS
2
ITEM: BOX BOUNDS xy xz yz pp pp pp
0.0000000000000000e+00 3.0857712342000001e+00 0.0000000000000000e+00
0.0000000000000000e+00 3.0857712342000001e+00 0.0000000000000000e+00
0.0000000000000000e+00 3.0857712342000001e+00 0.0000000000000000e+00
ITEM: ATOMS id type xs ys zs fx fy fz
1 1 0 0 0 2.22045e-16 2.87097e-16 2.6368e-16
2 1 0.5 0.5 0.5 -4.71845e-16 -3.37404e-16 -3.42496e-16
