ITEM: TIMESTEP
0
ITEM: NUMBER OF ATOMS
2
ITEM: BOX BOUNDS xy xz yz pp pp pp
0.0000000000000000e+00 3.1077347578999999e+00 0.0000000000000000e+00
0.0000000000000000e+00 3.1077347578999999e+00 0.0000000000000000e+00
0.0000000000000000e+00 3.1077347578999999e+00 0.0000000000000000e+00
ITEM: ATOMS id type xs ys zs fx fy fz
1 1 0 0 0 3.63694e-10 3.63693e-10 3.63693e-10
2 1 0.5 0.5 0.5 -3.63693e-10 -3.63693e-10 -3.63693e-10
ITEM: TIMESTEP
1
ITEM: NUMBER OF ATOMS
2
ITEM: BOX BOUNDS xy xz yz pp pp pp
0.0000000000000000e+00 3.1077347578999999e+00 0.0000000000000000e+00
0.0000000000000000e+00 3.1077347578999999e+00 0.0000000000000000e+00
0.0000000000000000e+00 3.1077347578999999e+00 0.0000000000000000e+00
ITEM: ATOMS id type xs ys zs fx fy fz
1 1 8.04449e-12 8.04449e-12 8.04448e-12 -2.66454e-15 -3.40044e-15 -2.83159e-15
2 1 0.5 0.5 0.5 2.60902e-15 3.6224e-15 2.78213e-15
