
2 atoms
1 atom types
   0.0000000000    3.1293921448 xlo xhi
   0.0000000000    3.1293921448 ylo yhi
   0.0000000000    3.1293921448 zlo zhi
   0.0000000000    0.0000000000    0.0000000000 xy xz yz

Atoms # atomic

     1      1    0.0000000000    0.0000000000    0.0000000000
     2      1    1.5646960724    1.5646960724    1.5646960724
