
2 atoms
1 atom types
   0.0000000000    3.2039821354 xlo xhi
   0.0000000000    3.2039821354 ylo yhi
   0.0000000000    3.2039821354 zlo zhi
   0.0000000000    0.0000000000    0.0000000000 xy xz yz

Atoms # atomic

     1      1    0.0000000000    0.0000000000    0.0000000000
     2      1    1.6019910677    1.6019910677    1.6019910677
