
2 atoms
1 atom types
   0.0000000000    3.1404979248 xlo xhi
   0.0000000000    3.1404979248 ylo yhi
   0.0000000000    3.1404979248 zlo zhi
   0.0000000000    0.0000000000    0.0000000000 xy xz yz

Atoms # atomic

     1      1    0.0000000000    0.0000000000    0.0000000000
     2      1    1.5702489624    1.5702489624    1.5702489624
