
2 atoms
1 atom types
   0.0000000000    3.3131791495 xlo xhi
   0.0000000000    3.3131791495 ylo yhi
   0.0000000000    3.3131791495 zlo zhi
   0.0000000000    0.0000000000    0.0000000000 xy xz yz

Atoms # atomic

     1      1    0.0000000000    0.0000000000    0.0000000000
     2      1    1.6565895747    1.6565895747    1.6565895747
